 &FCI NORB= 13,NELEC= 6,MS2= 2,
  ORBSYM=1,1,1,1,1,1,1,2,2,3,3,3,3,
  ISYM=2
 &END
 0.558917365248E+00  1  1  1  1
 0.290106934702E-01  2  1  1  1
 0.621793259011E-01  2  1  2  1
 0.474841847835E+00  2  2  1  1
-0.673734201796E-01  2  2  2  1
 0.600495062588E+00  2  2  2  2
-0.777676571563E-01  3  1  1  1
-0.454563276642E-02  3  1  2  1
-0.664297270180E-01  3  1  2  2
 0.373881020579E-01  3  1  3  1
-0.783492687831E-02  3  2  1  1
-0.911660384942E-02  3  2  2  1
 0.181355523291E-02  3  2  2  2
 0.813484124278E-02  3  2  3  1
 0.914332545930E-02  3  2  3  2
 0.321489308418E+00  3  3  1  1
 0.121305493796E-01  3  3  2  1
 0.289331945709E+00  3  3  2  2
-0.109355111769E-01  3  3  3  1
 0.186138363488E-02  3  3  3  2
 0.274446201902E+00  3  3  3  3
-0.401833905435E-01  4  1  1  1
-0.168698197671E-01  4  1  2  1
-0.548466618905E-02  4  1  2  2
 0.118860705429E-01  4  1  3  1
 0.854376703079E-02  4  1  3  2
-0.124246954233E-01  4  1  3  3
 0.201422361161E-01  4  1  4  1
-0.977209655438E-01  4  2  1  1
 0.223606241489E-01  4  2  2  1
-0.133317524892E+00  4  2  2  2
 0.313340736414E-01  4  2  3  1
-0.383373041082E-02  4  2  3  2
-0.277094956106E-01  4  2  3  3
 0.596017852644E-02  4  2  4  1
 0.711824422551E-01  4  2  4  2
 0.250567195352E-01  4  3  1  1
 0.230358688340E-01  4  3  2  1
-0.119198980523E-01  4  3  2  2
-0.753279186165E-02  4  3  3  1
 0.137389604783E-02  4  3  3  2
 0.105387378906E-01  4  3  3  3
-0.376879356096E-02  4  3  4  1
-0.347191076069E-02  4  3  4  2
 0.210833626196E-01  4  3  4  3
 0.365857229649E+00  4  4  1  1
-0.581665298716E-02  4  4  2  1
 0.386717077255E+00  4  4  2  2
-0.387367372984E-01  4  4  3  1
-0.424006726428E-02  4  4  3  2
 0.254730590645E+00  4  4  3  3
-0.687912257494E-02  4  4  4  1
-0.533634108987E-01  4  4  4  2
 0.505072208415E-02  4  4  4  3
 0.322171061729E+00  4  4  4  4
-0.217725160815E-01  5  1  1  1
 0.648557595754E-02  5  1  2  1
-0.167171149912E-01  5  1  2  2
-0.154263110954E-01  5  1  3  1
-0.101135679074E-01  5  1  3  2
-0.131527627348E-01  5  1  3  3
 0.360645339953E-02  5  1  4  1
 0.109237947128E-01  5  1  4  2
 0.451943628734E-02  5  1  4  3
-0.427198665178E-03  5  1  4  4
 0.451855025636E-01  5  1  5  1
 0.491862646800E-01  5  2  1  1
-0.221927227819E-02  5  2  2  1
 0.615163187767E-01  5  2  2  2
-0.243605262506E-01  5  2  3  1
 0.247490141926E-03  5  2  3  2
 0.102937861757E-01  5  2  3  3
 0.264939950627E-02  5  2  4  1
-0.371215443632E-01  5  2  4  2
 0.103048000392E-01  5  2  4  3
 0.353998304427E-01  5  2  4  4
 0.108266005190E-01  5  2  5  1
 0.367056022330E-01  5  2  5  2
-0.510898256857E-01  5  3  1  1
-0.196895955003E-01  5  3  2  1
-0.154053536063E-01  5  3  2  2
 0.709218275809E-02  5  3  3  1
-0.206528171820E-04  5  3  3  2
-0.212981395060E-01  5  3  3  3
 0.782377930718E-02  5  3  4  1
 0.830816341902E-02  5  3  4  2
-0.102471303889E-01  5  3  4  3
-0.151152705574E-01  5  3  4  4
 0.525542743177E-02  5  3  5  1
-0.482620498213E-02  5  3  5  2
 0.164751006825E-01  5  3  5  3
-0.686778288759E-02  5  4  1  1
 0.313075784337E-01  5  4  2  1
-0.661698607130E-01  5  4  2  2
 0.118667878102E-01  5  4  3  1
 0.409744291203E-02  5  4  3  2
-0.660297786729E-03  5  4  3  3
 0.391111897558E-02  5  4  4  1
 0.278954363544E-01  5  4  4  2
 0.149847514472E-01  5  4  4  3
-0.172253028987E-01  5  4  4  4
-0.269962002687E-02  5  4  5  1
-0.833216383555E-02  5  4  5  2
-0.100602448989E-01  5  4  5  3
 0.405129389945E-01  5  4  5  4
 0.447773920227E+00  5  5  1  1
 0.181875118266E-01  5  5  2  1
 0.399721198222E+00  5  5  2  2
-0.347240794907E-01  5  5  3  1
 0.477990521517E-04  5  5  3  2
 0.291475884433E+00  5  5  3  3
-0.205365125615E-01  5  5  4  1
-0.585953400237E-01  5  5  4  2
 0.994320534426E-02  5  5  4  3
 0.324837964761E+00  5  5  4  4
-0.324671989070E-01  5  5  5  1
 0.204231819556E-01  5  5  5  2
-0.401305704524E-01  5  5  5  3
 0.715484953898E-02  5  5  5  4
 0.411426645244E+00  5  5  5  5
 0.698122730284E-01  6  1  1  1
-0.687342132353E-02  6  1  2  1
 0.756221535273E-01  6  1  2  2
-0.432844288690E-01  6  1  3  1
-0.756845242014E-02  6  1  3  2
 0.150256527852E-01  6  1  3  3
-0.142415088229E-01  6  1  4  1
-0.457191271411E-01  6  1  4  2
 0.928796202437E-02  6  1  4  3
 0.393124073148E-01  6  1  4  4
 0.192453217206E-01  6  1  5  1
 0.345011294241E-01  6  1  5  2
-0.245201196456E-02  6  1  5  3
-0.285168893783E-01  6  1  5  4
 0.127461528299E-01  6  1  5  5
 0.707488892882E-01  6  1  6  1
-0.180090712909E-01  6  2  1  1
 0.835516172695E-02  6  2  2  1
-0.240258752648E-01  6  2  2  2
-0.219902144664E-02  6  2  3  1
-0.102152061748E-01  6  2  3  2
-0.546193910612E-02  6  2  3  3
-0.104737068504E-01  6  2  4  1
 0.159860295763E-01  6  2  4  2
 0.152670679418E-03  6  2  4  3
-0.103554295496E-01  6  2  4  4
 0.161879064906E-01  6  2  5  1
-0.110297208893E-01  6  2  5  2
 0.268122960636E-02  6  2  5  3
-0.453950317813E-02  6  2  5  4
-0.204978046853E-01  6  2  5  5
 0.461035994369E-02  6  2  6  1
 0.228811650313E-01  6  2  6  2
-0.108704937871E+00  6  3  1  1
-0.338298045114E-02  6  3  2  1
-0.941422965173E-01  6  3  2  2
 0.299278672798E-01  6  3  3  1
 0.552341100389E-02  6  3  3  2
-0.275055642987E-01  6  3  3  3
 0.155069761089E-01  6  3  4  1
 0.351887181059E-01  6  3  4  2
-0.439901828704E-02  6  3  4  3
-0.571385037950E-01  6  3  4  4
 0.359184410694E-02  6  3  5  1
-0.172731303571E-01  6  3  5  2
 0.132907548140E-01  6  3  5  3
 0.118092166628E-01  6  3  5  4
-0.717276513880E-01  6  3  5  5
-0.329237064840E-01  6  3  6  1
 0.226876068864E-02  6  3  6  2
 0.429736329388E-01  6  3  6  3
-0.326902625491E-01  6  4  1  1
-0.279418199605E-01  6  4  2  1
 0.116151027157E-01  6  4  2  2
 0.165148240504E-01  6  4  3  1
 0.808928333412E-02  6  4  3  2
-0.750119880584E-02  6  4  3  3
 0.107827008420E-01  6  4  4  1
-0.278896195062E-03  6  4  4  2
-0.140619985825E-01  6  4  4  3
-0.104331185052E-01  6  4  4  4
-0.169195404973E-01  6  4  5  1
-0.100009383928E-01  6  4  5  2
 0.947928245964E-02  6  4  5  3
-0.970809972706E-02  6  4  5  4
-0.104918953686E-01  6  4  5  5
-0.178783967133E-01  6  4  6  1
-0.851520173897E-02  6  4  6  2
 0.117964811511E-01  6  4  6  3
 0.246460294010E-01  6  4  6  4
 0.403389372911E-01  6  5  1  1
 0.306578696429E-01  6  5  2  1
-0.175424164351E-01  6  5  2  2
 0.237042969957E-02  6  5  3  1
-0.636540031352E-03  6  5  3  2
 0.199109717267E-01  6  5  3  3
-0.173670399756E-01  6  5  4  1
-0.115480341051E-02  6  5  4  2
 0.106534389981E-01  6  5  4  3
-0.187140408178E-02  6  5  4  4
-0.239117267578E-01  6  5  5  1
-0.714100928051E-02  6  5  5  2
-0.175933425914E-01  6  5  5  3
 0.142711788872E-01  6  5  5  4
 0.342462477872E-01  6  5  5  5
-0.753492299804E-02  6  5  6  1
-0.143344105769E-02  6  5  6  2
-0.999142752665E-02  6  5  6  3
-0.764739773545E-02  6  5  6  4
 0.395147697370E-01  6  5  6  5
 0.473846735230E+00  6  6  1  1
 0.116860340032E-01  6  6  2  1
 0.430226537193E+00  6  6  2  2
-0.613616902560E-01  6  6  3  1
-0.462430341006E-02  6  6  3  2
 0.299317772300E+00  6  6  3  3
-0.315216635088E-01  6  6  4  1
-0.856988216689E-01  6  6  4  2
 0.185357842809E-01  6  6  4  3
 0.335338158253E+00  6  6  4  4
-0.164981560647E-01  6  6  5  1
 0.410715084860E-01  6  6  5  2
-0.373949980494E-01  6  6  5  3
-0.171394300548E-01  6  6  5  4
 0.390596241164E+00  6  6  5  5
 0.674372027981E-01  6  6  6  1
-0.122601140678E-01  6  6  6  2
-0.881377119183E-01  6  6  6  3
-0.240612042218E-01  6  6  6  4
 0.278333361474E-01  6  6  6  5
 0.426289945885E+00  6  6  6  6
 0.629014176053E-02  7  1  1  1
-0.300953828788E-02  7  1  2  1
 0.882944116180E-02  7  1  2  2
-0.389354385462E-02  7  1  3  1
 0.111985985721E-02  7  1  3  2
 0.256700825215E-02  7  1  3  3
-0.733843786026E-03  7  1  4  1
-0.826275570609E-02  7  1  4  2
 0.133549204986E-02  7  1  4  3
 0.786995302568E-02  7  1  4  4
-0.179293230079E-02  7  1  5  1
 0.605665241427E-02  7  1  5  2
 0.363824044572E-03  7  1  5  3
-0.551818214060E-02  7  1  5  4
 0.277587223034E-02  7  1  5  5
 0.127585519129E-01  7  1  6  1
-0.350633940099E-02  7  1  6  2
-0.695657761105E-02  7  1  6  3
-0.172493623043E-02  7  1  6  4
-0.103027461391E-02  7  1  6  5
 0.172230487101E-01  7  1  6  6
 0.371293505724E-01  7  1  7  1
-0.737821650972E-02  7  2  1  1
-0.137069781868E-02  7  2  2  1
-0.346868401558E-02  7  2  2  2
 0.412709600585E-02  7  2  3  1
 0.387660181010E-03  7  2  3  2
-0.184820455173E-02  7  2  3  3
 0.111787333470E-02  7  2  4  1
 0.516185751260E-02  7  2  4  2
-0.998509482742E-03  7  2  4  3
-0.504875968966E-02  7  2  4  4
 0.290790684206E-04  7  2  5  1
-0.526112401394E-02  7  2  5  2
 0.341759693353E-03  7  2  5  3
 0.343121067053E-02  7  2  5  4
-0.344296358633E-02  7  2  5  5
-0.789929244508E-02  7  2  6  1
 0.313048357922E-02  7  2  6  2
 0.397585082278E-02  7  2  6  3
 0.168927727837E-03  7  2  6  4
 0.108903720490E-02  7  2  6  5
-0.936278782321E-02  7  2  6  6
-0.159937691465E-01  7  2  7  1
 0.190237641248E-01  7  2  7  2
-0.200640211312E-02  7  3  1  1
 0.221061456238E-02  7  3  2  1
-0.388819024582E-02  7  3  2  2
 0.288115969710E-02  7  3  3  1
-0.615667202678E-03  7  3  3  2
-0.783989295259E-03  7  3  3  3
 0.603344759970E-03  7  3  4  1
 0.536768096996E-02  7  3  4  2
-0.120284987675E-02  7  3  4  3
-0.281169910703E-02  7  3  4  4
 0.471095030031E-03  7  3  5  1
-0.411808397188E-02  7  3  5  2
-0.681186018438E-03  7  3  5  3
 0.358264944613E-02  7  3  5  4
 0.154182544033E-02  7  3  5  5
-0.884980373472E-02  7  3  6  1
 0.151790496710E-02  7  3  6  2
 0.305506619116E-02  7  3  6  3
 0.126915723209E-02  7  3  6  4
 0.101299921556E-02  7  3  6  5
-0.840573338732E-02  7  3  6  6
-0.199075706274E-01  7  3  7  1
 0.776397293294E-02  7  3  7  2
 0.109653653218E-01  7  3  7  3
 0.407744830559E-02  7  4  1  1
 0.917250886827E-03  7  4  2  1
 0.237144484098E-02  7  4  2  2
-0.979559264681E-03  7  4  3  1
 0.104145007701E-02  7  4  3  2
 0.726434249767E-03  7  4  3  3
 0.191085265911E-02  7  4  4  1
-0.285978575706E-02  7  4  4  2
 0.867268633148E-03  7  4  4  3
 0.286616010708E-02  7  4  4  4
-0.714986110028E-03  7  4  5  1
 0.407146262799E-02  7  4  5  2
-0.590009620782E-03  7  4  5  3
 0.914435342540E-03  7  4  5  4
 0.377356110389E-02  7  4  5  5
 0.377664950995E-03  7  4  6  1
-0.449439525408E-02  7  4  6  2
-0.317786736607E-03  7  4  6  3
 0.120640091293E-02  7  4  6  4
-0.129761894536E-02  7  4  6  5
 0.186042936179E-02  7  4  6  6
 0.144912286368E-02  7  4  7  1
-0.112222414406E-01  7  4  7  2
 0.172054467154E-04  7  4  7  3
 0.100032045858E-01  7  4  7  4
-0.108109406810E-01  7  5  1  1
 0.709695693135E-03  7  5  2  1
-0.109151946033E-01  7  5  2  2
 0.318094016484E-02  7  5  3  1
-0.992982424075E-03  7  5  3  2
-0.378922633331E-02  7  5  3  3
 0.220258741026E-03  7  5  4  1
 0.753516177210E-02  7  5  4  2
-0.772864554057E-03  7  5  4  3
-0.579205481687E-02  7  5  4  4
 0.228981932174E-02  7  5  5  1
-0.496950851017E-02  7  5  5  2
 0.167131250599E-02  7  5  5  3
 0.275118316130E-02  7  5  5  4
-0.716315045319E-02  7  5  5  5
-0.544449290705E-02  7  5  6  1
 0.420455358163E-02  7  5  6  2
 0.412890578387E-02  7  5  6  3
-0.930582188476E-03  7  5  6  4
-0.113864010386E-02  7  5  6  5
-0.105166313035E-01  7  5  6  6
-0.798364582181E-02  7  5  7  1
 0.108475319945E-01  7  5  7  2
 0.373480892011E-02  7  5  7  3
-0.709151694631E-02  7  5  7  4
 0.700871056031E-02  7  5  7  5
 0.351062229925E-01  7  6  1  1
-0.665913560865E-02  7  6  2  1
 0.392724132247E-01  7  6  2  2
-0.161672765602E-01  7  6  3  1
 0.117145569273E-03  7  6  3  2
 0.927644722817E-02  7  6  3  3
-0.480414291736E-02  7  6  4  1
-0.244925998192E-01  7  6  4  2
 0.320060760727E-02  7  6  4  3
 0.236179809732E-01  7  6  4  4
-0.134330815115E-02  7  6  5  1
 0.162203351449E-01  7  6  5  2
-0.111224491071E-02  7  6  5  3
-0.137206360681E-01  7  6  5  4
 0.151856306293E-01  7  6  5  5
 0.318948778114E-01  7  6  6  1
-0.528352509120E-02  7  6  6  2
-0.191518787556E-01  7  6  6  3
-0.516771475401E-02  7  6  6  4
-0.171779031784E-02  7  6  6  5
 0.441496781796E-01  7  6  6  6
 0.503958727846E-01  7  6  7  1
-0.222306119356E-01  7  6  7  2
-0.274583643851E-01  7  6  7  3
 0.205887232250E-02  7  6  7  4
-0.117303813662E-01  7  6  7  5
 0.726646141535E-01  7  6  7  6
 0.715729078747E+00  7  7  1  1
-0.555686493161E-01  7  7  2  1
 0.740583131529E+00  7  7  2  2
-0.171876022885E+00  7  7  3  1
 0.416026608100E-03  7  7  3  2
 0.357439340458E+00  7  7  3  3
-0.488007544751E-01  7  7  4  1
-0.261018039510E+00  7  7  4  2
 0.295794594908E-01  7  7  4  3
 0.502611202515E+00  7  7  4  4
-0.218744186643E-01  7  7  5  1
 0.157653015929E+00  7  7  5  2
-0.400794589027E-01  7  7  5  3
-0.114827402375E+00  7  7  5  4
 0.499382472981E+00  7  7  5  5
 0.271045412076E+00  7  7  6  1
-0.589209638211E-01  7  7  6  2
-0.210578562018E+00  7  7  6  3
-0.413882587432E-01  7  7  6  4
-0.174917670663E-02  7  7  6  5
 0.703394084871E+00  7  7  6  6
 0.290555612740E+00  7  7  7  1
-0.152352997395E+00  7  7  7  2
-0.156450498770E+00  7  7  7  3
 0.344507961365E-01  7  7  7  4
-0.910262055536E-01  7  7  7  5
 0.448289712203E+00  7  7  7  6
 3.361423130010E+00  7  7  7  7
 0.503016497610E+00  8  8  1  1
-0.274539249890E-01  8  8  2  1
 0.503626375000E+00  8  8  2  2
-0.818712952606E-01  8  8  3  1
-0.706815570004E-03  8  8  3  2
 0.296828178903E+00  8  8  3  3
-0.182812832971E-01  8  8  4  1
-0.107594991720E+00  8  8  4  2
 0.644272525006E-02  8  8  4  3
 0.359329801296E+00  8  8  4  4
 0.466623811177E-02  8  8  5  1
 0.517689174904E-01  8  8  5  2
-0.305491193935E-01  8  8  5  3
-0.339523719329E-01  8  8  5  4
 0.405455244094E+00  8  8  5  5
 0.869499554406E-01  8  8  6  1
-0.186750990070E-01  8  8  6  2
-0.100766780685E+00  8  8  6  3
-0.160492033804E-01  8  8  6  4
-0.538256441160E-02  8  8  6  5
 0.447182330583E+00  8  8  6  6
 0.769384358333E-02  8  8  7  1
-0.586120775992E-02  8  8  7  2
-0.322342350660E-02  8  8  7  3
 0.276011139988E-02  8  8  7  4
-0.105182250488E-01  8  8  7  5
 0.385071474394E-01  8  8  7  6
 0.735461197113E+00  8  8  7  7
 0.553451566026E+00  8  8  8  8
-0.123928580390E+00  9  8  1  1
 0.138324655797E-01  9  8  2  1
-0.128087674331E+00  9  8  2  2
 0.430111444071E-01  9  8  3  1
-0.100183620414E-02  9  8  3  2
-0.366768169737E-01  9  8  3  3
 0.116289321357E-01  9  8  4  1
 0.617388105971E-01  9  8  4  2
-0.660983898619E-02  9  8  4  3
-0.633427025425E-01  9  8  4  4
 0.468946588577E-02  9  8  5  1
-0.355475947254E-01  9  8  5  2
 0.122438193450E-01  9  8  5  3
 0.249833960397E-01  9  8  5  4
-0.632719586188E-01  9  8  5  5
-0.618683323280E-01  9  8  6  1
 0.135838809538E-01  9  8  6  2
 0.456808807404E-01  9  8  6  3
 0.766723872487E-02  9  8  6  4
-0.637014160440E-02  9  8  6  5
-0.107448200948E+00  9  8  6  6
-0.993120790125E-02  9  8  7  1
 0.645971126829E-02  9  8  7  2
 0.644251670715E-02  9  8  7  3
-0.196144997046E-02  9  8  7  4
 0.848649301587E-02  9  8  7  5
-0.300587931256E-01  9  8  7  6
-0.312502730402E+00  9  8  7  7
-0.142607856130E+00  9  8  8  8
 0.933707411010E-01  9  8  9  8
 0.380861347792E+00  9  9  1  1
-0.160986864872E-01  9  9  2  1
 0.383353131360E+00  9  9  2  2
-0.481949693863E-01  9  9  3  1
-0.133628055870E-02  9  9  3  2
 0.257156356349E+00  9  9  3  3
-0.109652678702E-01  9  9  4  1
-0.652808500189E-01  9  9  4  2
 0.411794312024E-02  9  9  4  3
 0.301495922029E+00  9  9  4  4
 0.346421243526E-02  9  9  5  1
 0.325838256151E-01  9  9  5  2
-0.158681521763E-01  9  9  5  3
-0.216405369167E-01  9  9  5  4
 0.328352024679E+00  9  9  5  5
 0.542978921825E-01  9  9  6  1
-0.114504702845E-01  9  9  6  2
-0.650451886819E-01  9  9  6  3
-0.111978512043E-01  9  9  6  4
-0.732566419513E-02  9  9  6  5
 0.352840198180E+00  9  9  6  6
 0.104174909358E-01  9  9  7  1
-0.652418357034E-02  9  9  7  2
-0.450475273629E-02  9  9  7  3
 0.243217341163E-02  9  9  7  4
-0.681503001133E-02  9  9  7  5
 0.302236733446E-01  9  9  7  6
 0.563610126631E+00  9  9  7  7
 0.413710529109E+00  9  9  8  8
-0.802404201208E-01  9  9  9  8
 0.347288152166E+00  9  9  9  9
 0.524324897614E+00  10  10  1  1
 0.118973412447E-01  10  10  2  1
 0.453576244475E+00  10  10  2  2
-0.493108102974E-01  10  10  3  1
 0.187699826177E-02  10  10  3  2
 0.318809134274E+00  10  10  3  3
-0.339763209974E-01  10  10  4  1
-0.872345437942E-01  10  10  4  2
 0.141167651269E-01  10  10  4  3
 0.344633700960E+00  10  10  4  4
-0.539641827112E-01  10  10  5  1
 0.301689324640E-01  10  10  5  2
-0.445216557131E-01  10  10  5  3
-0.350286311801E-02  10  10  5  4
 0.440456176893E+00  10  10  5  5
 0.382050016900E-01  10  10  6  1
-0.272455372964E-01  10  10  6  2
-0.937832459424E-01  10  10  6  3
-0.116478402192E-01  10  10  6  4
 0.459541327960E-01  10  10  6  5
 0.446059153152E+00  10  10  6  6
 0.323592353443E-02  10  10  7  1
-0.380084131182E-02  10  10  7  2
-0.882141273219E-04  10  10  7  3
 0.336894238969E-02  10  10  7  4
-0.891579450163E-02  10  10  7  5
 0.257403265614E-01  10  10  7  6
 0.627315537365E+00  10  10  7  7
 0.458800522820E+00  10  10  8  8
-0.102143586790E+00  10  10  9  8
 0.355225046665E+00  10  10  9  9
 0.529846415870E+00  10  10  10  10
-0.557612831384E-01  11  10  1  1
 0.251301324562E-01  11  10  2  1
-0.823129632007E-01  11  10  2  2
 0.253603922084E-01  11  10  3  1
 0.467803687855E-02  11  10  3  2
-0.385756349221E-02  11  10  3  3
 0.679468406457E-02  11  10  4  1
 0.327848171460E-01  11  10  4  2
 0.867363746356E-02  11  10  4  3
-0.332900303051E-01  11  10  4  4
-0.655704672949E-03  11  10  5  1
-0.153911966754E-01  11  10  5  2
-0.478766387213E-02  11  10  5  3
 0.237641887348E-01  11  10  5  4
-0.260556694089E-01  11  10  5  5
-0.332915799221E-01  11  10  6  1
 0.961633277724E-03  11  10  6  2
 0.248640579264E-01  11  10  6  3
-0.110068945800E-02  11  10  6  4
 0.117405520269E-01  11  10  6  5
-0.463508721690E-01  11  10  6  6
-0.273641080761E-02  11  10  7  1
 0.188764034752E-02  11  10  7  2
 0.233142320810E-02  11  10  7  3
 0.183157894597E-03  11  10  7  4
 0.177341547039E-02  11  10  7  5
-0.139559354752E-01  11  10  7  6
-0.150336041124E+00  11  10  7  7
-0.721035488218E-01  11  10  8  8
 0.363898066377E-01  11  10  9  8
-0.438086244161E-01  11  10  9  9
-0.519636184151E-01  11  10  10  10
 0.387627879840E-01  11  10  11  10
 0.314550765544E+00  11  11  1  1
 0.469714514565E-02  11  11  2  1
 0.298204737987E+00  11  11  2  2
-0.787397243591E-02  11  11  3  1
 0.802929950750E-02  11  11  3  2
 0.267506908634E+00  11  11  3  3
-0.328747496123E-02  11  11  4  1
-0.274780567926E-01  11  11  4  2
 0.156509287669E-01  11  11  4  3
 0.260540258568E+00  11  11  4  4
-0.170181907921E-01  11  11  5  1
 0.129150695707E-01  11  11  5  2
-0.187100001596E-01  11  11  5  3
 0.247824688260E-02  11  11  5  4
 0.288457140697E+00  11  11  5  5
 0.108469662065E-01  11  11  6  1
-0.110234063224E-01  11  11  6  2
-0.243003167206E-01  11  11  6  3
-0.150377204221E-02  11  11  6  4
 0.138003374807E-01  11  11  6  5
 0.293662789935E+00  11  11  6  6
 0.238741832020E-02  11  11  7  1
-0.923318657822E-03  11  11  7  2
-0.902334889699E-03  11  11  7  3
 0.135130358713E-02  11  11  7  4
-0.348348245830E-02  11  11  7  5
 0.861929053033E-02  11  11  7  6
 0.352687773873E+00  11  11  7  7
 0.291391388735E+00  11  11  8  8
-0.357386875832E-01  11  11  9  8
 0.252813404924E+00  11  11  9  9
 0.317990778951E+00  11  11  10  10
-0.346386006326E-02  11  11  11  10
 0.279378406959E+00  11  11  11  11
-0.868713472982E-01  12  10  1  1
-0.121475823323E-01  12  10  2  1
-0.551365198818E-01  12  10  2  2
 0.238533500118E-01  12  10  3  1
-0.348153342303E-04  12  10  3  2
-0.181504822175E-01  12  10  3  3
 0.124362558925E-01  12  10  4  1
 0.296011230256E-01  12  10  4  2
-0.110414615838E-01  12  10  4  3
-0.353916804851E-01  12  10  4  4
 0.144299643980E-01  12  10  5  1
-0.162644508216E-01  12  10  5  2
 0.136583229117E-01  12  10  5  3
-0.959991447296E-03  12  10  5  4
-0.553951187900E-01  12  10  5  5
-0.237050701546E-01  12  10  6  1
 0.991556334239E-02  12  10  6  2
 0.279406787121E-01  12  10  6  3
 0.916354812487E-02  12  10  6  4
-0.163493932841E-01  12  10  6  5
-0.659124726211E-01  12  10  6  6
-0.388428980104E-02  12  10  7  1
 0.381619940364E-02  12  10  7  2
 0.248362857799E-02  12  10  7  3
-0.211152599660E-02  12  10  7  4
 0.397596855622E-02  12  10  7  5
-0.135693096233E-01  12  10  7  6
-0.153371046236E+00  12  10  7  7
-0.629002574825E-01  12  10  8  8
 0.371840856014E-01  12  10  9  8
-0.374312055118E-01  12  10  9  9
-0.806229083067E-01  12  10  10  10
 0.161706640370E-01  12  10  11  10
-0.219312838295E-01  12  10  11  11
 0.367375349216E-01  12  10  12  10
 0.300909878124E-01  12  11  1  1
 0.107512144399E-01  12  11  2  1
 0.456501229826E-02  12  11  2  2
-0.740238152774E-02  12  11  3  1
 0.474313472255E-02  12  11  3  2
 0.143883461673E-01  12  11  3  3
-0.151726614185E-02  12  11  4  1
-0.133973429888E-01  12  11  4  2
 0.146263335647E-01  12  11  4  3
 0.641019196230E-02  12  11  4  4
-0.338137882127E-02  12  11  5  1
 0.133840493793E-01  12  11  5  2
-0.851419265482E-02  12  11  5  3
 0.878717688050E-02  12  11  5  4
 0.140694556437E-01  12  11  5  5
 0.125504748345E-01  12  11  6  1
-0.732808556128E-02  12  11  6  2
-0.496442093188E-02  12  11  6  3
-0.748714685542E-02  12  11  6  4
 0.745693709115E-02  12  11  6  5
 0.244330399043E-01  12  11  6  6
 0.305852972669E-02  12  11  7  1
-0.234776428627E-02  12  11  7  2
-0.241224286209E-02  12  11  7  3
 0.196221145289E-02  12  11  7  4
-0.231874850470E-02  12  11  7  5
 0.705672689536E-02  12  11  7  6
 0.666917583379E-01  12  11  7  7
 0.190131037163E-01  12  11  8  8
-0.150801784116E-01  12  11  9  8
 0.120875771831E-01  12  11  9  9
 0.266586625206E-01  12  11  10  10
 0.141192600520E-02  12  11  11  10
 0.160031558116E-01  12  11  11  11
-0.146007912368E-01  12  11  12  10
 0.184605772621E-01  12  11  12  11
 0.329737652467E+00  12  12  1  1
-0.175690238644E-01  12  12  2  1
 0.340531222959E+00  12  12  2  2
-0.178125915119E-01  12  12  3  1
-0.705007112208E-02  12  12  3  2
 0.260039916770E+00  12  12  3  3
-0.158405558902E-01  12  12  4  1
-0.346727603186E-01  12  12  4  2
-0.155484468525E-01  12  12  4  3
 0.273174794798E+00  12  12  4  4
-0.145043503276E-01  12  12  5  1
 0.330985465618E-02  12  12  5  2
-0.510166636433E-02  12  12  5  3
-0.253624063409E-01  12  12  5  4
 0.301943796293E+00  12  12  5  5
 0.190759845449E-01  12  12  6  1
-0.159806036913E-02  12  12  6  2
-0.414992001270E-01  12  12  6  3
 0.242055798460E-02  12  12  6  4
 0.332967827574E-02  12  12  6  5
 0.306202773442E+00  12  12  6  6
 0.305592951676E-02  12  12  7  1
-0.188561653430E-02  12  12  7  2
-0.234124652654E-03  12  12  7  3
-0.681660446794E-03  12  12  7  4
-0.259479589027E-02  12  12  7  5
 0.131266286238E-01  12  12  7  6
 0.399531870697E+00  12  12  7  7
 0.325841144812E+00  12  12  8  8
-0.395944028468E-01  12  12  9  8
 0.281541544960E+00  12  12  9  9
 0.335106898682E+00  12  12  10  10
-0.353535786471E-01  12  12  11  10
 0.247590098052E+00  12  12  11  11
-0.150161131325E-01  12  12  12  10
-0.823748617364E-02  12  12  12  11
 0.307779068441E+00  12  12  12  12
 0.201507653338E-01  13  10  1  1
-0.396055649888E-01  13  10  2  1
 0.791956397420E-01  13  10  2  2
-0.343441491560E-01  13  10  3  1
-0.304727869530E-02  13  10  3  2
-0.517736002162E-02  13  10  3  3
 0.509889425849E-02  13  10  4  1
-0.386030763661E-01  13  10  4  2
-0.259512526338E-02  13  10  4  3
 0.297763866196E-01  13  10  4  4
 0.295962751448E-01  13  10  5  1
 0.345238696635E-01  13  10  5  2
 0.155517825454E-01  13  10  5  3
-0.367724427116E-01  13  10  5  4
-0.233530782143E-01  13  10  5  5
 0.630997072436E-01  13  10  6  1
 0.208550845248E-02  13  10  6  2
-0.162015053792E-01  13  10  6  3
-0.404746872521E-02  13  10  6  4
-0.402354202163E-01  13  10  6  5
 0.282500847386E-01  13  10  6  6
 0.823769259017E-02  13  10  7  1
-0.470863821164E-02  13  10  7  2
-0.698146920876E-02  13  10  7  3
 0.591119651120E-03  13  10  7  4
-0.244202803883E-02  13  10  7  5
 0.243504736245E-01  13  10  7  6
 0.203772579056E+00  13  10  7  7
 0.705582586167E-01  13  10  8  8
-0.460634013363E-01  13  10  9  8
 0.450093123498E-01  13  10  9  9
 0.103411954569E-02  13  10  10  10
-0.434193921837E-01  13  10  11  10
 0.148917722605E-02  13  10  11  11
-0.737789461951E-02  13  10  12  10
 0.597296859274E-02  13  10  12  11
 0.156298893603E-01  13  10  12  12
 0.948853240364E-01  13  10  13  10
-0.101962274937E+00  13  11  1  1
 0.127988708456E-01  13  11  2  1
-0.108531105398E+00  13  11  2  2
 0.236358186135E-01  13  11  3  1
 0.228517262524E-03  13  11  3  2
-0.285467814547E-01  13  11  3  3
 0.888565058112E-02  13  11  4  1
 0.413979743633E-01  13  11  4  2
 0.320799639158E-02  13  11  4  3
-0.533114452547E-01  13  11  4  4
 0.133376228259E-01  13  11  5  1
-0.168092620060E-01  13  11  5  2
 0.956365937913E-02  13  11  5  3
 0.166602503360E-01  13  11  5  4
-0.711634608042E-01  13  11  5  5
-0.274142825505E-01  13  11  6  1
 0.106271842172E-01  13  11  6  2
 0.379639664233E-01  13  11  6  3
 0.186631285102E-02  13  11  6  4
-0.436240482976E-02  13  11  6  5
-0.833187884152E-01  13  11  6  6
-0.571288423448E-02  13  11  7  1
 0.298707218126E-02  13  11  7  2
 0.264323893670E-02  13  11  7  3
-0.106126937339E-02  13  11  7  4
 0.442216523149E-02  13  11  7  5
-0.174954464310E-01  13  11  7  6
-0.204948263371E+00  13  11  7  7
-0.100450005833E+00  13  11  8  8
 0.453522188306E-01  13  11  9  8
-0.637852624063E-01  13  11  9  9
-0.100920114038E+00  13  11  10  10
 0.303060120795E-01  13  11  11  10
-0.269878352857E-01  13  11  11  11
 0.276324608809E-01  13  11  12  10
-0.541768700350E-02  13  11  12  11
-0.489410287445E-01  13  11  12  12
-0.235447356257E-01  13  11  13  10
 0.458380386463E-01  13  11  13  11
-0.259476394496E-01  13  12  1  1
 0.159990332783E-01  13  12  2  1
-0.469014684778E-01  13  12  2  2
 0.191137789822E-01  13  12  3  1
 0.260074499552E-02  13  12  3  2
-0.299005794785E-02  13  12  3  3
 0.180609547944E-02  13  12  4  1
 0.230905234480E-01  13  12  4  2
 0.229803303416E-02  13  12  4  3
-0.222200109896E-01  13  12  4  4
-0.965596625261E-02  13  12  5  1
-0.180801573487E-01  13  12  5  2
-0.424776466198E-02  13  12  5  3
 0.204764476372E-01  13  12  5  4
-0.304862839075E-03  13  12  5  5
-0.346068707311E-01  13  12  6  1
 0.567002642344E-03  13  12  6  2
 0.155117640365E-01  13  12  6  3
 0.366729436294E-02  13  12  6  4
 0.144207517146E-01  13  12  6  5
-0.275533407273E-01  13  12  6  6
-0.718175586530E-02  13  12  7  1
 0.438008413767E-02  13  12  7  2
 0.476552833088E-02  13  12  7  3
-0.716032301872E-03  13  12  7  4
 0.265364532593E-02  13  12  7  5
-0.171848470447E-01  13  12  7  6
-0.142601128887E+00  13  12  7  7
-0.441762487528E-01  13  12  8  8
 0.295661417543E-01  13  12  9  8
-0.291125149048E-01  13  12  9  9
-0.176067035599E-01  13  12  10  10
 0.234489835180E-01  13  12  11  10
-0.372035296581E-02  13  12  11  11
 0.933087484735E-02  13  12  12  10
-0.351955779786E-02  13  12  12  11
-0.160606705300E-01  13  12  12  12
-0.447245781351E-01  13  12  13  10
 0.188637070578E-01  13  12  13  11
 0.256874571932E-01  13  12  13  12
 0.499294677390E+00  13  13  1  1
 0.526314832717E-02  13  13  2  1
 0.450686405768E+00  13  13  2  2
-0.453278112424E-01  13  13  3  1
 0.789824109696E-02  13  13  3  2
 0.310896985189E+00  13  13  3  3
-0.288106263201E-01  13  13  4  1
-0.956001692734E-01  13  13  4  2
 0.150508024284E-01  13  13  4  3
 0.340105280122E+00  13  13  4  4
-0.617523582914E-01  13  13  5  1
 0.337645557866E-01  13  13  5  2
-0.444801448613E-01  13  13  5  3
-0.746580234000E-02  13  13  5  4
 0.432695904148E+00  13  13  5  5
 0.417783841440E-01  13  13  6  1
-0.351466519628E-01  13  13  6  2
-0.905538725583E-01  13  13  6  3
-0.524318639451E-02  13  13  6  4
 0.498615834855E-01  13  13  6  5
 0.440963981050E+00  13  13  6  6
 0.135904528432E-01  13  13  7  1
-0.779117895910E-02  13  13  7  2
-0.567468392789E-02  13  13  7  3
 0.417373515279E-02  13  13  7  4
-0.128397062070E-01  13  13  7  5
 0.380269887188E-01  13  13  7  6
 0.689119948854E+00  13  13  7  7
 0.444386030097E+00  13  13  8  8
-0.109226147944E+00  13  13  9  8
 0.348840075053E+00  13  13  9  9
 0.507459756641E+00  13  13  10  10
-0.468344889612E-01  13  13  11  10
 0.315749468836E+00  13  13  11  11
-0.844261188686E-01  13  13  12  10
 0.300991345654E-01  13  13  12  11
 0.319548518863E+00  13  13  12  12
 0.174035249562E-02  13  13  13  10
-0.101408142246E+00  13  13  13  11
-0.191252381585E-01  13  13  13  12
 0.518021980116E+00  13  13  13  13
 0.787481256121E-01  8  1  8  1
-0.302540848082E-01  8  2  8  1
 0.410680459465E-01  8  2  8  2
-0.279347481248E-01  8  3  8  1
 0.887614934208E-02  8  3  8  2
 0.146272305866E-01  8  3  8  3
 0.914608716142E-02  8  4  8  1
-0.107021103830E-01  8  4  8  2
-0.256915789930E-02  8  4  8  3
 0.100523122833E-01  8  4  8  4
 0.340400064728E-01  8  5  8  1
-0.767874850676E-02  8  5  8  2
-0.895367390991E-02  8  5  8  3
 0.239214298078E-02  8  5  8  4
 0.306668742964E-01  8  5  8  5
 0.218919653201E-01  8  6  8  1
-0.691800052618E-02  8  6  8  2
-0.149747785507E-01  8  6  8  3
 0.199468805731E-03  8  6  8  4
-0.434867573096E-02  8  6  8  5