 &FCI NORB= 8,NELEC= 4,MS2= 0,
  ORBSYM=1,1,1,1,1,1,1,1,
  ISYM=0
 &END  
  2.2753338810e+00   1   1   1   1 
 -2.5333017110e-01   2   1   1   1 
  4.4297929850e-02   2   1   2   1 
  5.7123643160e-01   2   2   1   1 
 -1.4243761080e-02   2   2   2   1 
  4.0413770080e-01   2   2   2   2 
  5.6371796880e-02   3   1   3   1 
  3.8158617910e-02   3   2   3   1 
  5.4192360490e-02   3   2   3   2 
  8.8073030110e-02   4   1   3   1 
  3.2134916630e-02   4   1   3   2 
  1.7618277670e-01   4   1   4   1 
 -1.9479777660e-02   4   2   3   1 
 -3.0313761900e-02   4   2   3   2 
 -2.2230340170e-02   4   2   4   1 
  2.3005457590e-02   4   2   4   2 
  9.5708721880e-01   3   3   1   1 
 -3.0253946780e-02   3   3   2   1 
  5.0563615560e-01   3   3   2   2 
  3.1836763020e-01   4   3   1   1 
 -3.5599742080e-02   4   3   2   1 
  2.2527066990e-02   4   3   2   2 
  1.3585609200e+00   4   4   1   1 
 -9.0955682100e-02   4   4   2   1 
  5.2104353900e-01   4   4   2   2 
  8.6444824930e-01   3   3   3   3 
  1.0577839610e-01   4   3   3   3 
  1.1252464350e-01   4   3   4   3 
  9.0294122700e-01   4   4   3   3 
  2.1846190090e-01   4   4   4   3 
  1.1276271340e+00   4   4   4   4 
  5.6371796880e-02   5   1   5   1 
  3.8158617910e-02   5   2   5   1 
  5.4192360490e-02   5   2   5   2 
  8.8073030110e-02   6   1   5   1 
  3.2134916630e-02   6   1   5   2 
  1.7618277670e-01   6   1   6   1 
 -1.9479777660e-02   6   2   5   1 
 -3.0313761900e-02   6   2   5   2 
 -2.2230340170e-02   6   2   6   1 
  2.3005457590e-02   6   2   6   2 
  5.4827198390e-02   5   3   5   3 
  1.9437882580e-03   5   4   5   3 
  1.7176579680e-02   5   4   5   4 
  1.9437882580e-03   6   3   5   3 
  1.7176579680e-02   6   3   5   4 
  1.7176579680e-02   6   3   6   3 
  4.2402639990e-02   6   4   5   3 
  1.6824161630e-02   6   4   5   4 
  1.6824161630e-02   6   4   6   3 
  6.0037788000e-02   6   4   6   4 
  9.5708721880e-01   5   5   1   1 
 -3.0253946780e-02   5   5   2   1 
  5.0563615560e-01   5   5   2   2 
  3.1836763020e-01   6   5   1   1 
 -3.5599742080e-02   6   5   2   1 
  2.2527066990e-02   6   5   2   2 
  1.3585609200e+00   6   6   1   1 
 -9.0955682100e-02   6   6   2   1 
  5.2104353900e-01   6   6   2   2 
  7.5479382280e-01   5   5   3   3 
  1.0189082470e-01   5   5   4   3 
  8.1813597680e-01   5   5   4   4 
  1.0189082470e-01   6   5   3   3 
  7.8171484170e-02   6   5   4   3 
  1.8481357400e-01   6   5   4   4 
  8.1813597680e-01   6   6   3   3 
  1.8481357400e-01   6   6   4   3 
  1.0075515510e+00   6   6   4   4 
  8.6444824930e-01   5   5   5   5 
  1.0577839610e-01   6   5   5   5 
  1.1252464350e-01   6   5   6   5 
  9.0294122700e-01   6   6   5   5 
  2.1846190090e-01   6   6   6   5 
  1.1276271340e+00   6   6   6   6 
  5.6371796880e-02   7   1   7   1 
  3.8158617910e-02   7   2   7   1 
  5.4192360490e-02   7   2   7   2 
  8.8073030110e-02   8   1   7   1 
  3.2134916630e-02   8   1   7   2 
  1.7618277670e-01   8   1   8   1 
 -1.9479777660e-02   8   2   7   1 
 -3.0313761900e-02   8   2   7   2 
 -2.2230340170e-02   8   2   8   1 
  2.3005457590e-02   8   2   8   2 
  5.4827198390e-02   7   3   7   3 
  1.9437882580e-03   7   4   7   3 
  1.7176579680e-02   7   4   7   4 
  1.9437882580e-03   8   3   7   3 
  1.7176579680e-02   8   3   7   4 
  1.7176579680e-02   8   3   8   3 
  4.2402639990e-02   8   4   7   3 
  1.6824161630e-02   8   4   7   4 
  1.6824161630e-02   8   4   8   3 
  6.0037788000e-02   8   4   8   4 
  5.4827198390e-02   7   5   7   5 
  1.9437882580e-03   7   6   7   5 
  1.7176579680e-02   7   6   7   6 
  1.9437882580e-03   8   5   7   5 
  1.7176579680e-02   8   5   7   6 
  1.7176579680e-02   8   5   8   5 
  4.2402639990e-02   8   6   7   5 
  1.6824161630e-02   8   6   7   6 
  1.6824161630e-02   8   6   8   5 
  6.0037788000e-02   8   6   8   6 
  9.5708721880e-01   7   7   1   1 
 -3.0253946780e-02   7   7   2   1 
  5.0563615560e-01   7   7   2   2 
  3.1836763020e-01   8   7   1   1 
 -3.5599742080e-02   8   7   2   1 
  2.2527066990e-02   8   7   2   2 
  1.3585609200e+00   8   8   1   1 
 -9.0955682100e-02   8   8   2   1 
  5.2104353900e-01   8   8   2   2 
  7.5479382280e-01   7   7   3   3 
  1.0189082470e-01   7   7   4   3 
  8.1813597680e-01   7   7   4   4 
  1.0189082470e-01   8   7   3   3 
  7.8171484170e-02   8   7   4   3 
  1.8481357400e-01   8   7   4   4 
  8.1813597680e-01   8   8   3   3 
  1.8481357400e-01   8   8   4   3 
  1.0075515510e+00   8   8   4   4 
  7.5479382280e-01   7   7   5   5 
  1.0189082470e-01   7   7   6   5 
  8.1813597680e-01   7   7   6   6 
  1.0189082470e-01   8   7   5   5 
  7.8171484170e-02   8   7   6   5 
  1.8481357400e-01   8   7   6   6 
  8.1813597680e-01   8   8   5   5 
  1.8481357400e-01   8   8   6   5 
  1.0075515510e+00   8   8   6   6 
  8.6444824930e-01   7   7   7   7 
  1.0577839610e-01   8   7   7   7 
  1.1252464350e-01   8   7   8   7 
  9.0294122700e-01   8   8   7   7 
  2.1846190090e-01   8   8   8   7 
  1.1276271340e+00   8   8   8   8 
 -7.8575006600e+00   1   1   0   0 
  2.6757393200e-01   2   1   0   0 
 -1.7563501900e+00   2   2   0   0 
 -1.6570733840e+00   3   3   0   0 
 -6.2403014130e-01   4   3   0   0 
  1.7559001790e+00   4   4   0   0 
 -1.6570733840e+00   5   5   0   0 
 -6.2403014130e-01   6   5   0   0 
  1.7559001790e+00   6   6   0   0 
 -1.6570733840e+00   7   7   0   0 
 -6.2403014130e-01   8   7   0   0 
  1.7559001790e+00   8   8   0   0 
  0.0000000000e+00   0   0   0   0 
