 &FCI NORB= 4,NELEC= 4,MS2= 0,
  ORBSYM=1,1,1,1,
  ISYM=0
 &END 
  2.2679457660E+00   1   1   1   1  
 -0.2111818790E+00   2   1   1   1  
  0.3138258308E-01   2   1   2   1  
  0.4909715652E+00   2   2   1   1  
 -0.7869113237E-02   2   2   2   1  
  0.3397511542E+00   2   2   2   2  
  0.4895090312E-01   3   1   1   1  
 -0.7343246602E-02   3   1   2   1  
  0.1646118471E-02   3   1   2   2  
  0.1719084918E-02   3   1   3   1  
 -0.6718385965E-01   3   2   1   1  
  0.1857595751E-02   3   2   2   1  
 -0.3313262761E-01   3   2   2   2  
 -0.4265413154E-03   3   2   3   1  
  0.6222837139E-02   3   2   3   2  
  0.1416413337E+00   3   3   1   1  
 -0.4337337159E-03   3   3   2   1  
  0.1337132305E+00   3   3   2   2  
  0.2441914512E-04   3   3   3   1  
 -0.1834373106E-02   3   3   3   2  
  0.1100227758E+00   3   3   3   3  
 -0.2072195262E+00   4   1   1   1  
  0.3091786988E-01   4   1   2   1  
 -0.8269120939E-02   4   1   2   2  
 -0.7234672550E-02   4   1   3   1  
  0.1882381970E-02   4   1   3   2  
 -0.4995136405E-03   4   1   3   3  
  0.3047932126E-01   4   1   4   1  
  0.1997162253E+00   4   2   1   1  
 -0.7920083590E-02   4   2   2   1  
  0.7115559280E-01   4   2   2   2  
  0.1832178095E-02   4   2   3   1  
 -0.1504715160E-01   4   2   3   2  
  0.3567543346E-02   4   2   3   3  
 -0.7669371553E-02   4   2   4   1  
  0.4423261061E-01   4   2   4   2  
 -0.7453142107E-01   4   3   1   1 
  0.1849152148E-02   4   3   2   1  
 -0.4417940602E-01   4   3   2   2  
 -0.3834295785E-03   4   3   3   1  
  0.4937902093E-02   4   3   3   2  
 -0.9589124471E-02   4   3   3   3  
  0.1861810917E-02   4   3   4   1  
 -0.1106087118E-01   4   3   4   2  
  0.8838257752E-02   4   3   4   3  
  0.3890399635E+00   4   4   1   1  
 -0.7845863700E-02   4   4   2   1  
  0.2610468864E+00   4   4   2   2  
  0.1664841315E-02   4   4   3   1  
 -0.2047995105E-01   4   4   3   2  
  0.1250626594E+00   4   4   3   3  
 -0.7894000039E-02   4   4   4   1  
  0.4583223164E-01   4   4   4   2  
 -0.3258593753E-01   4   4   4   3  
  0.2136542350E+00   4   4   4   4  
 -7.8545464690E+00   1   1   0   0  
 0.21905098900E+00   2   1   0   0  
 -1.5940696130E+00   2   2   0   0  
 -0.5038662979E-01   3   1   0   0  
 0.15902451670E+00   3   2   0   0  
 -0.4996472436E+00   3   3   0   0  
  0.2158425412E+00   4   1   0   0  
 -0.4395272886E+00   4   2   0   0  
  0.2151398215E+00   4   3   0   0  
 -0.9315770207E+00   4   4   0   0  
  0.0000000000E+00   0   0   0   0
